LAMMPS data file generated by OpenBabel
12 atoms
12 bonds
18 angles
24 dihedrals
0 impropers
2 atom types
2 bond types
2 angle types
3 dihedral types
0 improper types
  -3.57253    4.98085 xlo xhi
  -3.57253    4.98085 ylo yhi
  -3.57253    4.98085 zlo zhi



Masses

1 12.0107 # C
2 1.00794 # H


Atoms

1       1    1    0.00000   -1.73906    3.58846   -1.30468 #   C
2       1    1    0.00000   -0.74178    3.28843   -2.23496 #   C
3       1    1    0.00000   -1.96277    2.73749   -0.21917 #   C
4       1    1    0.00000   -1.18754    1.58343   -0.06306 #   C
5       1    1    0.00000    0.03510    2.13524   -2.08167 #   C
6       1    1    0.00000   -0.18716    1.28164   -0.99543 #   C
7       1    2    0.41000   -2.33756    4.48085   -1.42656 #   H
8       1    2    0.41000   -2.73647    2.97415    0.49883 #   H
9       1    2    0.41000   -0.57443    3.95177   -3.07253 #   H
10      1    2    0.41000    0.80756    1.90409   -2.80343 #   H
11      1    2    0.41000    0.41535    0.38931   -0.87850 #   H
12      1    2    0.41000   -1.36380    0.92662    0.77916 #   H


Bonds

1       1    1    2 #  C: C
2       1    1    3 #  C: C
3       1    3    4 #  C: C
4       1    2    5 #  C: C
5       1    5    6 #  C: C
6       1    6    4 #  C: C
7       2    1    7 #  C: H
8       2    3    8 #  C: H
9       2    2    9 #  C: H
10      2    5   10 #  C: H
11      2    6   11 #  C: H
12      2    4   12 #  C: H


Angles

1       1    3    1    2 #  C: C: C
2       2    2    1    7 #  C: C: H
3       2    3    1    7 #  C: C: H
4       1    5    2    1 #  C: C: C
5       2    1    2    9 #  C: C: H
6       2    5    2    9 #  C: C: H
7       1    4    3    1 #  C: C: C
8       2    1    3    8 #  C: C: H
9       2    4    3    8 #  C: C: H
10      1    6    4    3 #  C: C: C
11      2    3    4   12 #  C: C: H
12      2    6    4   12 #  C: C: H
13      1    6    5    2 #  C: C: C
14      2    2    5   10 #  C: C: H
15      2    6    5   10 #  C: C: H
16      1    5    6    4 #  C: C: C
17      2    5    6   11 #  C: C: H
18      2    4    6   11 #  C: C: H


Dihedrals

1       1    5    1    2    3 #  C: C: C: C
2       2    3    1    2    9 #  C: C: C: H
3       2    5    1    2    7 #  C: C: C: H
4       3    9    1    2    7 #  H: C: C: H
5       1    4    1    3    2 #  C: C: C: C
6       2    2    1    3    8 #  C: C: C: H
7       2    4    1    3    7 #  C: C: C: H
8       3    8    1    3    7 #  H: C: C: H
9       1    6    3    4    1 #  C: C: C: C
10      2    1    3    4   12 #  C: C: C: H
11      2    6    3    4    8 #  C: C: C: H
12      3   12    3    4    8 #  H: C: C: H
13      1    6    2    5    1 #  C: C: C: C
14      2    1    2    5   10 #  C: C: C: H
15      2    6    2    5    9 #  C: C: C: H
16      3   10    2    5    9 #  H: C: C: H
17      1    4    5    6    2 #  C: C: C: C
18      2    2    5    6   11 #  C: C: C: H
19      2    4    5    6   10 #  C: C: C: H
20      3   11    5    6   10 #  H: C: C: H
21      1    3    6    4    5 #  C: C: C: C
22      2    5    6    4   12 #  C: C: C: H
23      2    3    6    4   11 #  C: C: C: H
24      3   12    6    4   11 #  H: C: C: H
