[Molden Format]
[Atoms] Angs
 C     1  6    -1.739056     3.588460    -1.304677
 C     2  6    -0.741776     3.288430    -2.234956
 C     3  6    -1.962767     2.737486    -0.219172
 C     4  6    -1.187535     1.583426    -0.063056
 C     5  6     0.035097     2.135241    -2.081673
 C     6  6    -0.187159     1.281637    -0.995432
 H     7  1    -2.337559     4.480849    -1.426558
 H     8  1    -2.736466     2.974146     0.498829
 H     9  1    -0.574431     3.951769    -3.072525
 H    10  1     0.807562     1.904091    -2.803430
 H    11  1     0.415352     0.389307    -0.878497
 H    12  1    -1.363796     0.926616     0.779158
